 Gaussian 03, Revision B.05,
 Gaussian 03:  x86-Linux-G03RevB.05 24-Oct-2003

 ----------------------------------------------------------------------
 #T PBEPBE/LanL2DZ PSEUDO=LANL2 extrabasis pop=ChelpG GFInput SCF=Tight
  Opt=(Z-matrix)
 ----------------------------------------------------------------------
 --------
 SiF4 gas
 --------
 Symbolic Z-matrix:
 Charge =  0 Multiplicity = 1

 SCF Done:  E(RPBE-PBE) =  -403.233274730     A.U. after   10 cycles
 SCF Done:  E(RPBE-PBE) =  -403.239900035     A.U. after   10 cycles
 SCF Done:  E(RPBE-PBE) =  -403.240532701     A.U. after    7 cycles
 Optimization completed.
    -- Stationary point found.

                         Standard orientation:
 ---------------------------------------------------------------------
 Center     Atomic     Atomic              Coordinates (Angstroms)
 Number     Number      Type              X           Y           Z
 ---------------------------------------------------------------------
    1         14             0        0.000000    0.000000    0.000000
    2          9             0        0.925053    0.925053    0.925053
    3          9             0       -0.925053   -0.925053    0.925053
    4          9             0        0.925053   -0.925053   -0.925053
    5          9             0       -0.925053    0.925053   -0.925053
 ---------------------------------------------------------------------

 The electronic state is 1-A1.
 Alpha  occ. eigenvalues --  -24.32611 -24.32611 -24.32611 -24.32611  -1.16715
 Alpha  occ. eigenvalues --   -1.13546  -1.13546  -1.13546  -0.56497  -0.49725
 Alpha  occ. eigenvalues --   -0.49725  -0.49725  -0.43591  -0.43591  -0.42884
 Alpha  occ. eigenvalues --   -0.42884  -0.42884  -0.39532  -0.39532  -0.39532
 Alpha virt. eigenvalues --   -0.05367   0.02670   0.02670   0.02670   0.10997
 Alpha virt. eigenvalues --    0.10997   0.10997   0.12101   0.12614   0.12614
 Alpha virt. eigenvalues --    0.13323   0.13323   0.13323   0.20129   0.20129

 Mulliken atomic charges:
              1
     1  Si   1.160699
     2  F   -0.290175
     3  F   -0.290175
     4  F   -0.290175
     5  F   -0.290175
 Sum of Mulliken charges=   0.00000

 Dipole moment (field-independent basis, Debye):
    X=     0.0000    Y=     0.0000    Z=     0.0000  Tot=     0.0000
 Breneman (CHELPG) radii used.
 Generate Potential Derived Charges using the Breneman model, NDens= 1.
 Grid spacing= 0.300 Box extension= 2.800
 NStep X,Y,Z=   26     26     26   Total possible points=       17576
 Number of Points to Fit=    5896

 **********************************************************************

            Electrostatic Properties Using The SCF Density

 Normal termination of Gaussian 03 at Fri Apr 30 13:25:27 2004.
