 Gaussian 03, Revision B.05,
 Gaussian 03:  SGI64-G03RevB.05  8-Nov-2003

 ----------------------------------------------------------
 #p lsda/gen pseudo=lanl1 opt=(modred,expert) units=au test
 ----------------------------------------------------------

 -----------------------------------
 Gaussian Test Job 589: NaCl 3d test
 -----------------------------------
 Symbolic Z-matrix:
 Charge =  0 Multiplicity = 1

 SCF Done:  E(RS-VWN) =  -59.4502985922     A.U. after    8 cycles
 SCF Done:  E(RS-VWN) =  -59.4866220097     A.U. after   10 cycles
 SCF Done:  E(RS-VWN) =  -59.5221034438     A.U. after   10 cycles
 SCF Done:  E(RS-VWN) =  -59.5272139562     A.U. after    9 cycles
 Optimization completed.
    -- Stationary point found.

                          Input orientation:
 ---------------------------------------------------------------------
 Center     Atomic     Atomic              Coordinates (Angstroms)
 Number     Number      Type              X           Y           Z
 ---------------------------------------------------------------------
    1         11             0       -1.285636   -1.285636   -1.285636
    2         17             0       -1.285636   -1.285636    1.285636
    3         17             0       -1.285636    1.285636   -1.285636
    4         11             0       -1.285636    1.285636    1.285636
    5         17             0        1.285636   -1.285636   -1.285636
    6         11             0        1.285636   -1.285636    1.285636
    7         11             0        1.285636    1.285636   -1.285636
    8         17             0        1.285636    1.285636    1.285636
    9         -2             0        5.142544    0.000000    0.000000
   10         -2             0        0.000000    5.142544    0.000000
   11         -2             0        0.000000    0.000000    5.142544
 ---------------------------------------------------------------------

 Alpha  occ. eigenvalues --   -0.52512  -0.48411  -0.48411  -0.48411  -0.10205
 Alpha  occ. eigenvalues --   -0.10205  -0.10205  -0.04875  -0.04875  -0.04875
 Alpha  occ. eigenvalues --   -0.04875  -0.04875  -0.04875  -0.01565  -0.01565
 Alpha  occ. eigenvalues --   -0.01565
 Alpha virt. eigenvalues --    0.54366   0.56514   0.56514   0.56514   1.24395
 Alpha virt. eigenvalues --    1.24395   1.24395   1.35234   1.35234   1.35234
 Alpha virt. eigenvalues --    1.35234   1.35234   1.35234   1.40940   1.40940

 Mulliken atomic charges:
              1
     1  Na   0.752187
     2  Cl  -0.752187
     3  Cl  -0.752187
     4  Na   0.752187
     5  Cl  -0.752187
     6  Na   0.752187
     7  Na   0.752187
     8  Cl  -0.752187
 Sum of Mulliken charges=   0.00000

 Dipole moment (field-independent basis, Debye):
    X=     0.0000    Y=     0.0000    Z=     0.0000  Tot=     0.0000
 Leave Link  601 at Mon Nov 10 12:00:12 2003, MaxMem=   83886080 cpu:       0.1
 (Enter /mf/frisch/g03/l9999.exe)

 Test job not archived.
 1\1\GINC-GORDY\FOpt\RSVWN\Gen\Cl4Na4\FRISCH\10-Nov-2003\0\\#P LSDA/GEN
  PSEUDO=LANL1 OPT=(MODRED,EXPERT) UNITS=AU TEST\\Gaussian Test Job 589
 : NaCl 3d test\\0,1\Na,-1.2856359784,-1.2856359784,-1.2856359784\Cl,-1
 .2856359784,-1.2856359784,1.2856359784\Cl,-1.2856359784,1.2856359784,-
 1.2856359783\Na,-1.2856359784,1.2856359784,1.2856359784\Cl,1.285635978
 4,-1.2856359784,-1.2856359784\Na,1.2856359784,-1.2856359784,1.28563597

 Normal termination of Gaussian 03 at Mon Nov 10 12:00:13 2003.
